ID,Reduced Composition,Z,True Composition,Ionic conductivity (S cm-1),IC (Total),IC (Bulk),Space group,Space group #,a,b,c,alpha,beta,gamma,Family,DOI,Checked,Ref,Cif ID,Cif ref_1,Cif ref_2,note,close match,close match DOI,ICSD ID,Laskowski ID,Liion ID
w7d,Li3PO4,4,Li12.0P4.0O16.0,4.2e-18,,,Pnma,62,6.1113,10.4612,4.9208,90.0,90.0,90.0,LISICON,10.1006/jssc.1995.1140,1,D2 - 70,done,79427-ICSD,,,,,79427.0,70.0,